# vtk DataFile Version 2.0
VTK FORMAT
ASCII

DATASET UNSTRUCTURED_GRID
POINTS 10000 float 
  0.000000E+00  0.000000E+00  0.000000E+00
  0.000000E+00  1.010101E-02  0.000000E+00
  0.000000E+00  2.020202E-02  0.000000E+00
  0.000000E+00  3.030303E-02  0.000000E+00
  0.000000E+00  4.040404E-02  0.000000E+00
  0.000000E+00  5.050505E-02  0.000000E+00
  0.000000E+00  6.060606E-02  0.000000E+00
  0.000000E+00  7.070707E-02  0.000000E+00
  0.000000E+00  8.080808E-02  0.000000E+00
  0.000000E+00  9.090909E-02  0.000000E+00
  0.000000E+00  1.010101E-01  0.000000E+00
  0.000000E+00  1.111111E-01  0.000000E+00
  0.000000E+00  1.212121E-01  0.000000E+00
  0.000000E+00  1.313131E-01  0.000000E+00
  0.000000E+00  1.414141E-01  0.000000E+00
  0.000000E+00  1.515152E-01  0.000000E+00
  0.000000E+00  1.616162E-01  0.000000E+00
  0.000000E+00  1.717172E-01  0.000000E+00
  0.000000E+00  1.818182E-01  0.000000E+00
  0.000000E+00  1.919192E-01  0.000000E+00
  0.000000E+00  2.020202E-01  0.000000E+00
  0.000000E+00  2.121212E-01  0.000000E+00
  0.000000E+00  2.222222E-01  0.000000E+00
  0.000000E+00  2.323232E-01  0.000000E+00
  0.000000E+00  2.424242E-01  0.000000E+00
  0.000000E+00  2.525253E-01  0.000000E+00
  0.000000E+00  2.626263E-01  0.000000E+00
  0.000000E+00  2.727273E-01  0.000000E+00
  0.000000E+00  2.828283E-01  0.000000E+00
  0.000000E+00  2.929293E-01  0.000000E+00
  0.000000E+00  3.030303E-01  0.000000E+00
  0.000000E+00  3.131313E-01  0.000000E+00
  0.000000E+00  3.232323E-01  0.000000E+00
  0.000000E+00  3.333333E-01  0.000000E+00
  0.000000E+00  3.434343E-01  0.000000E+00
  0.000000E+00  3.535354E-01  0.000000E+00
  0.000000E+00  3.636364E-01  0.000000E+00
  0.000000E+00  3.737374E-01  0.000000E+00
  0.000000E+00  3.838384E-01  0.000000E+00
  0.000000E+00  3.939394E-01  0.000000E+00
  0.000000E+00  4.040404E-01  0.000000E+00
  0.000000E+00  4.141414E-01  0.000000E+00
  0.000000E+00  4.242424E-01  0.000000E+00
  0.000000E+00  4.343434E-01  0.000000E+00
  0.000000E+00  4.444444E-01  0.000000E+00
  0.000000E+00  4.545455E-01  0.000000E+00
  0.000000E+00  4.646465E-01  0.000000E+00
  0.000000E+00  4.747475E-01  0.000000E+00
  0.000000E+00  4.848485E-01  0.000000E+00
  0.000000E+00  4.949495E-01  0.000000E+00
  0.000000E+00  5.050505E-01  0.000000E+00
  0.000000E+00  5.151515E-01  0.000000E+00
  0.000000E+00  5.252525E-01  0.000000E+00
  0.000000E+00  5.353535E-01  0.000000E+00
  0.000000E+00  5.454545E-01  0.000000E+00
  0.000000E+00  5.555556E-01  0.000000E+00
  0.000000E+00  5.656566E-01  0.000000E+00
  0.000000E+00  5.757576E-01  0.000000E+00
  0.000000E+00  5.858586E-01  0.000000E+00
  0.000000E+00  5.959596E-01  0.000000E+00
  0.000000E+00  6.060606E-01  0.000000E+00
  0.000000E+00  6.161616E-01  0.000000E+00
  0.000000E+00  6.262626E-01  0.000000E+00
  0.000000E+00  6.363636E-01  0.000000E+00
  0.000000E+00  6.464646E-01  0.000000E+00
  0.000000E+00  6.565657E-01  0.000000E+00
  0.000000E+00  6.666667E-01  0.000000E+00
  0.000000E+00  6.767677E-01  0.000000E+00
  0.000000E+00  6.868687E-01  0.000000E+00
  0.000000E+00  6.969697E-01  0.000000E+00
  0.000000E+00  7.070707E-01  0.000000E+00
  0.000000E+00  7.171717E-01  0.000000E+00
  0.000000E+00  7.272727E-01  0.000000E+00
  0.000000E+00  7.373737E-01  0.000000E+00
  0.000000E+00  7.474747E-01  0.000000E+00
  0.000000E+00  7.575758E-01  0.000000E+00
  0.000000E+00  7.676768E-01  0.000000E+00
  0.000000E+00  7.777778E-01  0.000000E+00
  0.000000E+00  7.878788E-01  0.000000E+00
  0.000000E+00  7.979798E-01  0.000000E+00
  0.000000E+00  8.080808E-01  0.000000E+00
  0.000000E+00  8.181818E-01  0.000000E+00
  0.000000E+00  8.282828E-01  0.000000E+00
  0.000000E+00  8.383838E-01  0.000000E+00
  0.000000E+00  8.484848E-01  0.000000E+00
  0.000000E+00  8.585859E-01  0.000000E+00
  0.000000E+00  8.686869E-01  0.000000E+00
  0.000000E+00  8.787879E-01  0.000000E+00
  0.000000E+00  8.888889E-01  0.000000E+00
  0.000000E+00  8.989899E-01  0.000000E+00
  0.000000E+00  9.090909E-01  0.000000E+00
  0.000000E+00  9.191919E-01  0.000000E+00
  0.000000E+00  9.292929E-01  0.000000E+00
  0.000000E+00  9.393939E-01  0.000000E+00
  0.000000E+00  9.494949E-01  0.000000E+00
  0.000000E+00  9.595960E-01  0.000000E+00
  0.000000E+00  9.696970E-01  0.000000E+00
  0.000000E+00  9.797980E-01  0.000000E+00
  0.000000E+00  9.898990E-01  0.000000E+00
  0.000000E+00  1.000000E+00  0.000000E+00
  0.101010E-01  0.000000E+00  0.000000E+00
  0.101010E-01  1.010101E-02  0.000000E+00
  0.101010E-01  2.020202E-02  0.000000E+00
  0.101010E-01  3.030303E-02  0.000000E+00
  0.101010E-01  4.040404E-02  0.000000E+00
  0.101010E-01  5.050505E-02  0.000000E+00
  0.101010E-01  6.060606E-02  0.000000E+00
  0.101010E-01  7.070707E-02  0.000000E+00
  0.101010E-01  8.080808E-02  0.000000E+00
  0.101010E-01  9.090909E-02  0.000000E+00
  0.101010E-01  1.010101E-01  0.000000E+00
  0.101010E-01  1.111111E-01  0.000000E+00
  0.101010E-01  1.212121E-01  0.000000E+00
  0.101010E-01  1.313131E-01  0.000000E+00
  0.101010E-01  1.414141E-01  0.000000E+00
  0.101010E-01  1.515152E-01  0.000000E+00
  0.101010E-01  1.616162E-01  0.000000E+00
  0.101010E-01  1.717172E-01  0.000000E+00
  0.101010E-01  1.818182E-01  0.000000E+00
  0.101010E-01  1.919192E-01  0.000000E+00
  0.101010E-01  2.020202E-01  0.000000E+00
  0.101010E-01  2.121212E-01  0.000000E+00
  0.101010E-01  2.222222E-01  0.000000E+00
  0.101010E-01  2.323232E-01  0.000000E+00
  0.101010E-01  2.424242E-01  0.000000E+00
  0.101010E-01  2.525253E-01  0.000000E+00
  0.101010E-01  2.626263E-01  0.000000E+00
  0.101010E-01  2.727273E-01  0.000000E+00
  0.101010E-01  2.828283E-01  0.000000E+00
  0.101010E-01  2.929293E-01  0.000000E+00
  0.101010E-01  3.030303E-01  0.000000E+00
  0.101010E-01  3.131313E-01  0.000000E+00
  0.101010E-01  3.232323E-01  0.000000E+00
  0.101010E-01  3.333333E-01  0.000000E+00
  0.101010E-01  3.434343E-01  0.000000E+00
  0.101010E-01  3.535354E-01  0.000000E+00
  0.101010E-01  3.636364E-01  0.000000E+00
  0.101010E-01  3.737374E-01  0.000000E+00
  0.101010E-01  3.838384E-01  0.000000E+00
  0.101010E-01  3.939394E-01  0.000000E+00
  0.101010E-01  4.040404E-01  0.000000E+00
  0.101010E-01  4.141414E-01  0.000000E+00
  0.101010E-01  4.242424E-01  0.000000E+00
  0.101010E-01  4.343434E-01  0.000000E+00
  0.101010E-01  4.444444E-01  0.000000E+00
  0.101010E-01  4.545455E-01  0.000000E+00
  0.101010E-01  4.646465E-01  0.000000E+00
  0.101010E-01  4.747475E-01  0.000000E+00
  0.101010E-01  4.848485E-01  0.000000E+00
  0.101010E-01  4.949495E-01  0.000000E+00
  0.101010E-01  5.050505E-01  0.000000E+00
  0.101010E-01  5.151515E-01  0.000000E+00
  0.101010E-01  5.252525E-01  0.000000E+00
  0.101010E-01  5.353535E-01  0.000000E+00
  0.101010E-01  5.454545E-01  0.000000E+00
  0.101010E-01  5.555556E-01  0.000000E+00
  0.101010E-01  5.656566E-01  0.000000E+00
  0.101010E-01  5.757576E-01  0.000000E+00
  0.101010E-01  5.858586E-01  0.000000E+00
  0.101010E-01  5.959596E-01  0.000000E+00
  0.101010E-01  6.060606E-01  0.000000E+00
  0.101010E-01  6.161616E-01  0.000000E+00
  0.101010E-01  6.262626E-01  0.000000E+00
  0.101010E-01  6.363636E-01  0.000000E+00
  0.101010E-01  6.464646E-01  0.000000E+00
  0.101010E-01  6.565657E-01  0.000000E+00
  0.101010E-01  6.666667E-01  0.000000E+00
  0.101010E-01  6.767677E-01  0.000000E+00
  0.101010E-01  6.868687E-01  0.000000E+00
  0.101010E-01  6.969697E-01  0.000000E+00
  0.101010E-01  7.070707E-01  0.000000E+00
  0.101010E-01  7.171717E-01  0.000000E+00
  0.101010E-01  7.272727E-01  0.000000E+00
  0.101010E-01  7.373737E-01  0.000000E+00
  0.101010E-01  7.474747E-01  0.000000E+00
  0.101010E-01  7.575758E-01  0.000000E+00
  0.101010E-01  7.676768E-01  0.000000E+00
  0.101010E-01  7.777778E-01  0.000000E+00
  0.101010E-01  7.878788E-01  0.000000E+00
  0.101010E-01  7.979798E-01  0.000000E+00
  0.101010E-01  8.080808E-01  0.000000E+00
  0.101010E-01  8.181818E-01  0.000000E+00
  0.101010E-01  8.282828E-01  0.000000E+00
  0.101010E-01  8.383838E-01  0.000000E+00
  0.101010E-01  8.484848E-01  0.000000E+00
  0.101010E-01  8.585859E-01  0.000000E+00
  0.101010E-01  8.686869E-01  0.000000E+00
  0.101010E-01  8.787879E-01  0.000000E+00
  0.101010E-01  8.888889E-01  0.000000E+00
  0.101010E-01  8.989899E-01  0.000000E+00
  0.101010E-01  9.090909E-01  0.000000E+00
  0.101010E-01  9.191919E-01  0.000000E+00
  0.101010E-01  9.292929E-01  0.000000E+00
  0.101010E-01  9.393939E-01  0.000000E+00
  0.101010E-01  9.494949E-01  0.000000E+00
  0.101010E-01  9.595960E-01  0.000000E+00
  0.101010E-01  9.696970E-01  0.000000E+00
  0.101010E-01  9.797980E-01  0.000000E+00
  0.101010E-01  9.898990E-01  0.000000E+00
  0.101010E-01  1.000000E+00  0.000000E+00
  0.202020E-01  0.000000E+00  0.000000E+00
  0.202020E-01  1.010101E-02  0.000000E+00
  0.202020E-01  2.020202E-02  0.000000E+00
  0.202020E-01  3.030303E-02  0.000000E+00
  0.202020E-01  4.040404E-02  0.000000E+00
  0.202020E-01  5.050505E-02  0.000000E+00
  0.202020E-01  6.060606E-02  0.000000E+00
  0.202020E-01  7.070707E-02  0.000000E+00
  0.202020E-01  8.080808E-02  0.000000E+00
  0.202020E-01  9.090909E-02  0.000000E+00
  0.202020E-01  1.010101E-01  0.000000E+00
  0.202020E-01  1.111111E-01  0.000000E+00
  0.202020E-01  1.212121E-01  0.000000E+00
  0.202020E-01  1.313131E-01  0.000000E+00
  0.202020E-01  1.414141E-01  0.000000E+00
  0.202020E-01  1.515152E-01  0.000000E+00
  0.202020E-01  1.616162E-01  0.000000E+00
  0.202020E-01  1.717172E-01  0.000000E+00
  0.202020E-01  1.818182E-01  0.000000E+00
  0.202020E-01  1.919192E-01  0.000000E+00
  0.202020E-01  2.020202E-01  0.000000E+00
  0.202020E-01  2.121212E-01  0.000000E+00
  0.202020E-01  2.222222E-01  0.000000E+00
  0.202020E-01  2.323232E-01  0.000000E+00
  0.202020E-01  2.424242E-01  0.000000E+00
  0.202020E-01  2.525253E-01  0.000000E+00
  0.202020E-01  2.626263E-01  0.000000E+00
  0.202020E-01  2.727273E-01  0.000000E+00
  0.202020E-01  2.828283E-01  0.000000E+00
  0.202020E-01  2.929293E-01  0.000000E+00
[...]
POINT_DATA 10000
 SCALARS difference float
 LOOKUP_TABLE default
  0.000000E+00
  0.000000E+00
  0.000000E+00
  0.000000E+00
  0.000000E+00
  0.000000E+00
  0.000000E+00
  0.000000E+00
  0.000000E+00
  0.000000E+00
  0.000000E+00
  0.000000E+00
  0.000000E+00
  0.000000E+00
  0.000000E+00
  0.000000E+00
  0.000000E+00
  0.000000E+00
  0.000000E+00
  0.000000E+00
  0.000000E+00
  0.000000E+00
  0.000000E+00
  0.000000E+00
  0.000000E+00
  0.000000E+00
  0.000000E+00
  0.000000E+00
  0.000000E+00
  0.000000E+00
  0.000000E+00
  0.000000E+00
  0.000000E+00
  0.000000E+00
  0.000000E+00
  0.000000E+00
  0.000000E+00
  4.654656E-10
  9.247654E-10
  1.104867E-09
  9.770279E-10
  4.764485E-10
  0.000000E+00
  0.000000E+00
  0.000000E+00
  0.000000E+00
  0.000000E+00
  0.000000E+00
  0.000000E+00
  0.000000E+00
  0.000000E+00
  0.000000E+00
  0.000000E+00
  0.000000E+00
  0.000000E+00
  0.000000E+00
  0.000000E+00
  0.000000E+00
  4.764485E-10
  9.770279E-10
  1.104867E-09
  9.247654E-10
  4.654656E-10
  0.000000E+00
  0.000000E+00
  0.000000E+00
  0.000000E+00
  0.000000E+00
  0.000000E+00
  0.000000E+00
  0.000000E+00
  0.000000E+00
  0.000000E+00
  0.000000E+00
  0.000000E+00
  0.000000E+00
  0.000000E+00
  0.000000E+00
  0.000000E+00
  0.000000E+00
  0.000000E+00
  0.000000E+00
  0.000000E+00
  0.000000E+00
  0.000000E+00
  0.000000E+00
  0.000000E+00
  0.000000E+00
  0.000000E+00
  0.000000E+00
  0.000000E+00
  0.000000E+00
  0.000000E+00
  0.000000E+00
  0.000000E+00
  0.000000E+00
  0.000000E+00
  0.000000E+00
  0.000000E+00
  0.000000E+00
  0.000000E+00
  0.000000E+00
  0.000000E+00
  0.000000E+00
  0.000000E+00
  0.000000E+00
  0.000000E+00
  0.000000E+00
  0.000000E+00
  0.000000E+00
  0.000000E+00
  0.000000E+00
  0.000000E+00
  0.000000E+00
  0.000000E+00
  0.000000E+00
  0.000000E+00
  0.000000E+00
  0.000000E+00
  0.000000E+00
  0.000000E+00
  0.000000E+00
  0.000000E+00
  0.000000E+00
  0.000000E+00
  0.000000E+00
  0.000000E+00
  0.000000E+00
  0.000000E+00
  0.000000E+00
  0.000000E+00
  0.000000E+00
  0.000000E+00
  0.000000E+00
  0.000000E+00
  0.000000E+00
  5.964740E-10
  1.336141E-09
  1.930147E-09
  1.969003E-09
  1.357232E-09
  3.584655E-10
  0.000000E+00
  0.000000E+00
  0.000000E+00
  0.000000E+00
  0.000000E+00
  0.000000E+00
  0.000000E+00
  0.000000E+00
  0.000000E+00
  0.000000E+00
  0.000000E+00
  0.000000E+00
  0.000000E+00
  0.000000E+00
  0.000000E+00
  0.000000E+00
  3.584655E-10
  1.357232E-09
  1.969003E-09
  1.930147E-09
  1.336141E-09
  5.964740E-10
  0.000000E+00
  0.000000E+00
  0.000000E+00
  0.000000E+00
  0.000000E+00
  0.000000E+00
  0.000000E+00
  0.000000E+00
  0.000000E+00
  0.000000E+00
  0.000000E+00
  0.000000E+00
  0.000000E+00
  0.000000E+00
  0.000000E+00
  0.000000E+00
  0.000000E+00
  0.000000E+00
  0.000000E+00
  0.000000E+00
  0.000000E+00
  0.000000E+00
  0.000000E+00
  0.000000E+00
  0.000000E+00
  0.000000E+00
  0.000000E+00
  0.000000E+00
  0.000000E+00
  0.000000E+00
  0.000000E+00
  0.000000E+00
  0.000000E+00
  0.000000E+00
  0.000000E+00
  0.000000E+00
  0.000000E+00
  0.000000E+00
  0.000000E+00
  0.000000E+00
  0.000000E+00
  0.000000E+00
  0.000000E+00
  0.000000E+00
  0.000000E+00
  0.000000E+00
  0.000000E+00
  0.000000E+00
  0.000000E+00
  0.000000E+00
  0.000000E+00
  0.000000E+00
  0.000000E+00
  0.000000E+00
  0.000000E+00
  0.000000E+00
  0.000000E+00
  0.000000E+00
  0.000000E+00
  0.000000E+00
  0.000000E+00
  0.000000E+00
  0.000000E+00
  0.000000E+00
  0.000000E+00
  0.000000E+00
  1.056497E-10
  0.000000E+00
  0.000000E+00
  0.000000E+00
  0.000000E+00
  6.618733E-10
  1.406385E-09
  1.713256E-09
  1.304561E-09
  4.031168E-10
  0.000000E+00
  0.000000E+00
  0.000000E+00
  0.000000E+00
  0.000000E+00
  0.000000E+00
  0.000000E+00
  0.000000E+00
  0.000000E+00
  0.000000E+00
  0.000000E+00
  0.000000E+00
  0.000000E+00
  0.000000E+00
  0.000000E+00
  0.000000E+00
  0.000000E+00
  0.000000E+00
  0.000000E+00
  0.000000E+00
  4.031168E-10
  1.304561E-09
  1.713256E-09
  1.406385E-09
  6.618733E-10
  0.000000E+00
  0.000000E+00
  0.000000E+00
  0.000000E+00
  1.056497E-10
  0.000000E+00
  0.000000E+00
  0.000000E+00
  0.000000E+00
  0.000000E+00
  0.000000E+00
  0.000000E+00
  0.000000E+00
  0.000000E+00
  0.000000E+00
  0.000000E+00
  0.000000E+00
  0.000000E+00
  0.000000E+00
  0.000000E+00
  0.000000E+00
  0.000000E+00
  0.000000E+00
  0.000000E+00
  0.000000E+00
  0.000000E+00
  0.000000E+00
  0.000000E+00
  0.000000E+00
  0.000000E+00
  0.000000E+00
  0.000000E+00
  0.000000E+00
  0.000000E+00
  0.000000E+00
  0.000000E+00
  0.000000E+00
  0.000000E+00
  0.000000E+00
  0.000000E+00
  0.000000E+00
  0.000000E+00
  0.000000E+00
  0.000000E+00
  0.000000E+00
  0.000000E+00
  0.000000E+00
  0.000000E+00
  0.000000E+00
  0.000000E+00
  0.000000E+00
  0.000000E+00
  0.000000E+00
  0.000000E+00
  0.000000E+00
  0.000000E+00
  0.000000E+00
  0.000000E+00
  0.000000E+00
  0.000000E+00
  0.000000E+00
  0.000000E+00
  0.000000E+00
  0.000000E+00
  0.000000E+00
  0.000000E+00
  0.000000E+00
  0.000000E+00
  0.000000E+00
  8.136257E-10
  1.489870E-09
  1.337478E-09
  3.083134E-10
  0.000000E+00
  0.000000E+00
  0.000000E+00
  0.000000E+00
  0.000000E+00
  0.000000E+00
  0.000000E+00
  0.000000E+00
  0.000000E+00
  5.492411E-10
  1.860634E-09
  2.533565E-09
  2.533565E-09
  1.860634E-09
  5.492411E-10
  0.000000E+00
  0.000000E+00
  0.000000E+00
  0.000000E+00
  0.000000E+00
  0.000000E+00
  0.000000E+00
  0.000000E+00
  0.000000E+00
  3.083134E-10
  1.337478E-09
  1.489870E-09
  8.136257E-10
  0.000000E+00
  0.000000E+00
  0.000000E+00
  0.000000E+00
  0.000000E+00
  0.000000E+00
  0.000000E+00
  0.000000E+00
  0.000000E+00
  0.000000E+00
  0.000000E+00
  0.000000E+00
  0.000000E+00
  0.000000E+00
  0.000000E+00
  0.000000E+00
  0.000000E+00
  0.000000E+00
  0.000000E+00
  0.000000E+00
  0.000000E+00
  0.000000E+00
  0.000000E+00
  0.000000E+00
  0.000000E+00
  0.000000E+00
  0.000000E+00
  0.000000E+00
  0.000000E+00
  0.000000E+00
  0.000000E+00
  0.000000E+00
  0.000000E+00
  0.000000E+00
  0.000000E+00
  0.000000E+00
  0.000000E+00
  0.000000E+00
  0.000000E+00
  0.000000E+00
  0.000000E+00
  0.000000E+00
  0.000000E+00
  0.000000E+00
  0.000000E+00
  0.000000E+00
  0.000000E+00
  0.000000E+00
  0.000000E+00
  0.000000E+00
  0.000000E+00
  0.000000E+00
  0.000000E+00
  0.000000E+00
  0.000000E+00
  0.000000E+00
  0.000000E+00
  0.000000E+00
  0.000000E+00
  0.000000E+00
  0.000000E+00
  0.000000E+00
  0.000000E+00
  0.000000E+00
  0.000000E+00
  0.000000E+00
  0.000000E+00
  9.095342E-10
  1.562561E-09
  9.596276E-10
  0.000000E+00
  0.000000E+00
  0.000000E+00
  0.000000E+00
  0.000000E+00
  0.000000E+00
  0.000000E+00
  4.506811E-09
  9.325697E-09
  1.359800E-08
  1.717569E-08
  2.242561E-08
  2.594828E-08
  2.772606E-08
  2.772606E-08
  2.594828E-08
  2.242561E-08
  1.717569E-08
  1.359800E-08
  9.325697E-09
  4.506811E-09
  0.000000E+00
  0.000000E+00
  0.000000E+00
  0.000000E+00
  0.000000E+00
  0.000000E+00
  0.000000E+00
  9.596276E-10
  1.562561E-09
  9.095342E-10
  0.000000E+00
  0.000000E+00
  0.000000E+00
  0.000000E+00
  0.000000E+00
  0.000000E+00
  0.000000E+00
  0.000000E+00
  0.000000E+00
  0.000000E+00
  0.000000E+00
  0.000000E+00
  0.000000E+00
  0.000000E+00
  0.000000E+00
  0.000000E+00
  0.000000E+00
  0.000000E+00
  0.000000E+00
  0.000000E+00
  0.000000E+00
  0.000000E+00
  0.000000E+00
  0.000000E+00
  0.000000E+00
  0.000000E+00
  0.000000E+00
  0.000000E+00
  0.000000E+00
  0.000000E+00
  0.000000E+00
  0.000000E+00
  0.000000E+00
  0.000000E+00
  0.000000E+00
  0.000000E+00
  0.000000E+00
  0.000000E+00
  0.000000E+00
  0.000000E+00
  0.000000E+00
  0.000000E+00
  0.000000E+00
  0.000000E+00
  0.000000E+00
  0.000000E+00
  0.000000E+00
  0.000000E+00
  0.000000E+00
  0.000000E+00
  0.000000E+00
  0.000000E+00
  0.000000E+00
  0.000000E+00
  0.000000E+00
  0.000000E+00
  0.000000E+00
  0.000000E+00
  0.000000E+00
  0.000000E+00
  0.000000E+00
  0.000000E+00
  0.000000E+00
  0.000000E+00
  0.000000E+00
  8.950288E-10
  1.583805E-09
  6.831523E-10
  0.000000E+00
  0.000000E+00
  0.000000E+00
  0.000000E+00
  0.000000E+00
  2.860755E-09
  1.012356E-08
  1.896524E-08
  3.159860E-08
  4.304579E-08
  5.301076E-08
  6.129144E-08
  7.324710E-08
  8.125350E-08
  8.529200E-08
  8.529200E-08
  8.125350E-08
  7.324710E-08
  6.129144E-08
  5.301076E-08
  4.304579E-08
  3.159860E-08
  1.896524E-08
  1.012356E-08
  2.860755E-09
  0.000000E+00
  0.000000E+00
  0.000000E+00
  0.000000E+00
  0.000000E+00
  6.831523E-10
  1.583805E-09
  8.950288E-10
  0.000000E+00
  0.000000E+00
  0.000000E+00
  0.000000E+00
  0.000000E+00
  0.000000E+00
  0.000000E+00
  0.000000E+00
  0.000000E+00
  0.000000E+00
  0.000000E+00
  0.000000E+00
  0.000000E+00
  0.000000E+00
  0.000000E+00
  0.000000E+00
  0.000000E+00
  0.000000E+00
  0.000000E+00
  0.000000E+00
  0.000000E+00
  0.000000E+00
  0.000000E+00
  0.000000E+00
  0.000000E+00
  0.000000E+00
  0.000000E+00
  0.000000E+00
  0.000000E+00
  0.000000E+00
  0.000000E+00
  0.000000E+00
  0.000000E+00
  0.000000E+00
  0.000000E+00
  0.000000E+00
  0.000000E+00
  0.000000E+00
  0.000000E+00
  0.000000E+00
  0.000000E+00
  0.000000E+00
  0.000000E+00
  0.000000E+00
  0.000000E+00
  0.000000E+00
  0.000000E+00
  0.000000E+00
  0.000000E+00
  0.000000E+00
  0.000000E+00
  0.000000E+00
  0.000000E+00
  0.000000E+00
  0.000000E+00
  0.000000E+00
  0.000000E+00
  0.000000E+00
  0.000000E+00
  0.000000E+00
  0.000000E+00
  0.000000E+00
  0.000000E+00
  7.756187E-10
  1.580692E-09
  5.429618E-10
  0.000000E+00
  0.000000E+00
  0.000000E+00
  0.000000E+00
  3.034236E-09
  1.211446E-08
  2.814539E-08
  4.539041E-08
  6.561540E-08
  9.395801E-08
  1.195638E-07
  1.418709E-07
  1.604311E-07
  1.868814E-07
  2.046351E-07
  2.136007E-07
  2.136007E-07
  2.046351E-07
  1.868814E-07
  1.604311E-07
  1.418709E-07
  1.195638E-07
  9.395801E-08
  6.561540E-08
  4.539041E-08
  2.814539E-08
  1.211446E-08
  3.034236E-09
  0.000000E+00
  0.000000E+00
  0.000000E+00
  0.000000E+00
  5.429618E-10
  1.580692E-09
  7.756187E-10
  0.000000E+00
  0.000000E+00
  0.000000E+00
  0.000000E+00
  0.000000E+00
  0.000000E+00
  0.000000E+00
  0.000000E+00
  0.000000E+00
  0.000000E+00
  0.000000E+00
  0.000000E+00
  0.000000E+00
  0.000000E+00
  0.000000E+00
  0.000000E+00
  0.000000E+00
  0.000000E+00
  0.000000E+00
  0.000000E+00
  0.000000E+00
  0.000000E+00
  0.000000E+00
  0.000000E+00
  0.000000E+00
  0.000000E+00
  0.000000E+00
  0.000000E+00
  0.000000E+00
  0.000000E+00
  0.000000E+00
  0.000000E+00
  0.000000E+00
  0.000000E+00
  0.000000E+00
  0.000000E+00
  0.000000E+00
  0.000000E+00
  0.000000E+00
  0.000000E+00
  0.000000E+00
  0.000000E+00
  0.000000E+00
  0.000000E+00
  0.000000E+00
  0.000000E+00
  0.000000E+00
  0.000000E+00
  0.000000E+00
  0.000000E+00
  0.000000E+00
  0.000000E+00
  0.000000E+00
  0.000000E+00
  0.000000E+00
  0.000000E+00
  0.000000E+00
  0.000000E+00
  0.000000E+00
  0.000000E+00
  0.000000E+00
  5.332146E-10
  1.559658E-09
  5.826496E-10
  0.000000E+00
  0.000000E+00
  0.000000E+00
  0.000000E+00
  9.905733E-09
  2.867771E-08
  5.023829E-08
  8.659449E-08
  1.252918E-07
  1.704113E-07
  2.332673E-07
  2.902108E-07
  3.399145E-07
  3.813170E-07
  4.394286E-07
  4.785086E-07
  4.982590E-07
  4.982590E-07
  4.785086E-07
  4.394286E-07
  3.813170E-07
  3.399145E-07
  2.902108E-07
  2.332673E-07
  1.704113E-07
  1.252918E-07
  8.659449E-08
  5.023829E-08
  2.867771E-08
  9.905733E-09
  0.000000E+00
  0.000000E+00
  0.000000E+00
  0.000000E+00
  5.826496E-10
  1.559658E-09
  5.332146E-10
  0.000000E+00
  0.000000E+00
  0.000000E+00
  0.000000E+00
  0.000000E+00
  0.000000E+00
  0.000000E+00
  0.000000E+00
  0.000000E+00
  0.000000E+00
  0.000000E+00
  0.000000E+00
  0.000000E+00
  0.000000E+00
  0.000000E+00
  0.000000E+00
  0.000000E+00
  0.000000E+00
  0.000000E+00
  0.000000E+00
  0.000000E+00
  0.000000E+00
  0.000000E+00
  0.000000E+00
  0.000000E+00
  0.000000E+00
  0.000000E+00
  0.000000E+00
  0.000000E+00
  0.000000E+00
  0.000000E+00
  0.000000E+00
  0.000000E+00
  0.000000E+00
  0.000000E+00
  0.000000E+00
  0.000000E+00
  0.000000E+00
  0.000000E+00
  0.000000E+00
  0.000000E+00
  0.000000E+00
  0.000000E+00
  0.000000E+00
  0.000000E+00
  0.000000E+00
  0.000000E+00
  0.000000E+00
  0.000000E+00
  0.000000E+00
  0.000000E+00
  0.000000E+00
  0.000000E+00
  0.000000E+00
  0.000000E+00
  0.000000E+00
  0.000000E+00
  0.000000E+00
  0.000000E+00
  1.185548E-10
  1.455994E-09
  8.226404E-10
  0.000000E+00
  0.000000E+00
  0.000000E+00
  3.566600E-09
  2.002892E-08
  4.502148E-08
  8.773589E-08
  1.361932E-07
  2.170107E-07
  3.032378E-07
  4.034076E-07
  5.420318E-07
  6.678539E-07
  7.777770E-07
  8.693669E-07
  9.957865E-07
  1.080918E-06
  1.123961E-06
  1.123961E-06
  1.080918E-06
  9.957865E-07
  8.693669E-07
  7.777770E-07
  6.678539E-07
  5.420318E-07
  4.034076E-07
  3.032378E-07
  2.170107E-07
  1.361932E-07
  8.773589E-08
  4.502148E-08
  2.002892E-08
  3.566600E-09
  0.000000E+00
  0.000000E+00
  0.000000E+00
  8.226404E-10
  1.455994E-09
  1.185548E-10
  0.000000E+00
  0.000000E+00
  0.000000E+00
  0.000000E+00
  0.000000E+00
  0.000000E+00
  0.000000E+00
  0.000000E+00
  0.000000E+00
  0.000000E+00
  0.000000E+00
  0.000000E+00
  0.000000E+00
  0.000000E+00
  0.000000E+00
  0.000000E+00
  0.000000E+00
  0.000000E+00
  0.000000E+00
  0.000000E+00
  0.000000E+00
  0.000000E+00
  0.000000E+00
  0.000000E+00
  0.000000E+00
  0.000000E+00
  0.000000E+00
  0.000000E+00
  0.000000E+00
  0.000000E+00
  0.000000E+00
  0.000000E+00
  0.000000E+00
  0.000000E+00
  0.000000E+00
  0.000000E+00
  0.000000E+00
  0.000000E+00
  0.000000E+00
  0.000000E+00
  0.000000E+00
  0.000000E+00
  0.000000E+00
  0.000000E+00
  0.000000E+00
  0.000000E+00
  0.000000E+00
  0.000000E+00
  0.000000E+00
  0.000000E+00
  0.000000E+00
  0.000000E+00
  0.000000E+00
  0.000000E+00
  0.000000E+00
  0.000000E+00
  0.000000E+00
  0.000000E+00
  1.095727E-09
  1.211162E-09
  0.000000E+00
  0.000000E+00
  0.000000E+00
  6.340229E-09
  2.987421E-08
  6.812159E-08
  1.243424E-07
  2.193114E-07
  3.273592E-07
  5.057824E-07
  6.964518E-07
  9.167687E-07
  1.219132E-06
  1.493813E-06
  1.733833E-06
  1.933781E-06
  2.204997E-06
  2.387830E-06
  2.480294E-06
  2.480294E-06
  2.387830E-06
  2.204997E-06
  1.933781E-06
  1.733833E-06
  1.493813E-06
  1.219132E-06
  9.167687E-07
  6.964518E-07
  5.057824E-07
  3.273592E-07
  2.193114E-07
  1.243424E-07
  6.812159E-08
  2.987421E-08
  6.340229E-09
  0.000000E+00
  0.000000E+00
  0.000000E+00
  1.211162E-09
  1.095727E-09
  0.000000E+00
  0.000000E+00
  0.000000E+00
  0.000000E+00
  0.000000E+00
  0.000000E+00
  0.000000E+00
  0.000000E+00
  0.000000E+00
  0.000000E+00
  0.000000E+00
  0.000000E+00
  0.000000E+00
  0.000000E+00
  0.000000E+00
  0.000000E+00
  0.000000E+00
  0.000000E+00
  0.000000E+00
  0.000000E+00
  0.000000E+00
  0.000000E+00
  0.000000E+00
  0.000000E+00
  0.000000E+00
  0.000000E+00
  0.000000E+00
  0.000000E+00
  0.000000E+00
  0.000000E+00
  0.000000E+00
  0.000000E+00
  0.000000E+00
  0.000000E+00
  0.000000E+00
  0.000000E+00
  0.000000E+00
  0.000000E+00
  0.000000E+00
  0.000000E+00
  0.000000E+00
  0.000000E+00
  0.000000E+00
  0.000000E+00
  0.000000E+00
  0.000000E+00
  0.000000E+00
  0.000000E+00
  0.000000E+00
  0.000000E+00
  0.000000E+00
  0.000000E+00
  0.000000E+00
  0.000000E+00
  0.000000E+00
  0.000000E+00
  0.000000E+00
  3.145803E-10
  1.565243E-09
  0.000000E+00
  0.000000E+00
  0.000000E+00
  7.589528E-09
  3.654086E-08
  9.024548E-08
  1.755290E-07
  3.006543E-07
  5.103303E-07
  7.492761E-07
  1.138895E-06
  1.555204E-06
  2.033105E-06
  2.682866E-06
  3.273332E-06
  3.789216E-06
  4.218800E-06
  4.791255E-06
  5.177514E-06
  5.372897E-06
  5.372897E-06
  5.177514E-06
  4.791255E-06
  4.218800E-06
  3.789216E-06
  3.273332E-06
  2.682866E-06
  2.033105E-06
  1.555204E-06
  1.138895E-06
  7.492761E-07
  5.103303E-07
  3.006543E-07
  1.755290E-07
  9.024548E-08
  3.654086E-08
  7.589528E-09
  0.000000E+00
  0.000000E+00
  0.000000E+00
  1.565243E-09
  3.145803E-10
  0.000000E+00
  0.000000E+00
  0.000000E+00
  0.000000E+00
  0.000000E+00
  0.000000E+00
  0.000000E+00
  0.000000E+00
  0.000000E+00
  0.000000E+00
  0.000000E+00
  0.000000E+00
  0.000000E+00
  0.000000E+00
  0.000000E+00
  0.000000E+00
  0.000000E+00
  0.000000E+00
  0.000000E+00
  0.000000E+00
  0.000000E+00
  0.000000E+00
  0.000000E+00
  0.000000E+00
  0.000000E+00
  0.000000E+00
  0.000000E+00
  0.000000E+00
  0.000000E+00
  0.000000E+00
  0.000000E+00
  0.000000E+00
  0.000000E+00
  0.000000E+00
  0.000000E+00
  0.000000E+00
  0.000000E+00
  0.000000E+00
  0.000000E+00
  0.000000E+00
  0.000000E+00
  0.000000E+00
  0.000000E+00
  0.000000E+00
  0.000000E+00
  0.000000E+00
  0.000000E+00
  0.000000E+00
  0.000000E+00
  0.000000E+00
  0.000000E+00
  0.000000E+00
  0.000000E+00
  0.000000E+00
  0.000000E+00
  0.000000E+00
  1.293837E-09
  1.214402E-10
  0.000000E+00
  0.000000E+00
  7.151230E-09
  3.948345E-08
  1.051528E-07
  2.245012E-07
  4.132752E-07
  6.896779E-07
  1.147691E-06
  1.669362E-06
  2.507816E-06
  3.402685E-06
  4.422659E-06
  5.795709E-06
  7.043527E-06
  8.133405E-06
  9.040509E-06
  1.022782E-05
  1.102963E-05
  1.143527E-05
  1.143527E-05
  1.102963E-05
  1.022782E-05
  9.040509E-06
  8.133405E-06
  7.043527E-06
  5.795709E-06
  4.422659E-06
  3.402685E-06
  2.507816E-06
  1.669362E-06
  1.147691E-06
  6.896779E-07
  4.132752E-07
  2.245012E-07
  1.051528E-07
  3.948345E-08
  7.151230E-09
  0.000000E+00
  0.000000E+00
  1.214402E-10
  1.293837E-09
  0.000000E+00
  0.000000E+00
  0.000000E+00
  0.000000E+00
  0.000000E+00
  0.000000E+00
  0.000000E+00
  0.000000E+00
  0.000000E+00
  0.000000E+00
  0.000000E+00
  0.000000E+00
  0.000000E+00
  0.000000E+00
  0.000000E+00
  0.000000E+00
  0.000000E+00
  0.000000E+00
  0.000000E+00
  0.000000E+00
  0.000000E+00
  0.000000E+00
  0.000000E+00
  0.000000E+00
  0.000000E+00
  0.000000E+00
  0.000000E+00
  0.000000E+00
  0.000000E+00
  0.000000E+00
  0.000000E+00
  0.000000E+00
  0.000000E+00
  0.000000E+00
  0.000000E+00
  0.000000E+00
  0.000000E+00
  0.000000E+00
  0.000000E+00
  0.000000E+00
  0.000000E+00
  0.000000E+00
  0.000000E+00
  0.000000E+00
  0.000000E+00
  0.000000E+00
  0.000000E+00
  0.000000E+00
  0.000000E+00
  0.000000E+00
  0.000000E+00
  0.000000E+00
  0.000000E+00
  0.000000E+00
  0.000000E+00
  1.782604E-10
  1.451828E-09
  0.000000E+00
  0.000000E+00
  4.900471E-09
  3.841990E-08
  1.116848E-07
  2.574956E-07
  5.208854E-07
  9.349375E-07
  1.538132E-06
  2.524279E-06
  3.645468E-06
  5.420176E-06
  7.311107E-06
  9.450574E-06
  1.230107E-05
  1.489131E-05
  1.715282E-05
  1.903403E-05
  2.145224E-05
  2.308655E-05
  2.391347E-05
  2.391347E-05
  2.308655E-05
  2.145224E-05
  1.903403E-05
  1.715282E-05
  1.489131E-05
  1.230107E-05
  9.450574E-06
  7.311107E-06
  5.420176E-06
  3.645468E-06
  2.524279E-06
  1.538132E-06
  9.349375E-07
  5.208854E-07
  2.574956E-07
  1.116848E-07
  3.841990E-08
  4.900471E-09
  0.000000E+00
  0.000000E+00
  1.451828E-09
  1.782604E-10
  0.000000E+00
  0.000000E+00
  0.000000E+00
  0.000000E+00
  0.000000E+00
  0.000000E+00
  0.000000E+00
  0.000000E+00
  0.000000E+00
  0.000000E+00
  0.000000E+00
  0.000000E+00
  0.000000E+00
  0.000000E+00
  0.000000E+00
  0.000000E+00
  0.000000E+00
  0.000000E+00
  0.000000E+00
  0.000000E+00
  0.000000E+00
  0.000000E+00
  0.000000E+00
  0.000000E+00
  0.000000E+00
  0.000000E+00
  0.000000E+00
  0.000000E+00
  0.000000E+00
  0.000000E+00
  0.000000E+00
  0.000000E+00
  0.000000E+00
  0.000000E+00
  0.000000E+00
  0.000000E+00
  0.000000E+00
  0.000000E+00
  0.000000E+00
  0.000000E+00
  0.000000E+00
  0.000000E+00
  0.000000E+00
  0.000000E+00
  0.000000E+00
  0.000000E+00
  0.000000E+00
  0.000000E+00
  0.000000E+00
  0.000000E+00
  0.000000E+00
  0.000000E+00
  0.000000E+00
  0.000000E+00
  1.158517E-09
  0.000000E+00