 title = "grid"
               variables = "x","y","rho","rhou","rhov","rhoe","mach","Cp","Total Enthalpy","Entropy"
 zone n=        6722  e =       13226  et=quadrilateral, f=fepoint
   50.500000000000000        0.0000000000000000        1.2097258056258009        205.70418090328641        2.4145801585026367E-003   267471.70022459573       0.49986278716198013        3.9939900451655774E-004   303758.67740700487        5.4763123388923418E-005
   50.226114400000000        5.2262365800000001        1.2097325604094813        205.70990052050533       -8.4814107617184591E-003   267473.75420952524       0.49987411187195424        3.7244977628995139E-004   303759.06904089323        5.1662190056367407E-005
   49.407436099999998        10.395320800000000        1.2097537985065943        205.72857965198176       -1.7135254618352011E-002   267480.09360323159       0.49991164558464429        2.9313647838758442E-004   303760.12389338802        4.0964108529717436E-005
   48.052903399999998        15.450610800000000        1.2097840528892858        205.75742334678878       -1.9307033035333265E-002   267489.08384614252       0.49997096086881965        1.8976857053515107E-004   303761.45397065242        2.4041949688635711E-005
   46.177352800000001        20.336652600000001        1.2098052044853669        205.78025645199136       -1.6941067257002177E-002   267496.03367667133       0.50001869906099006        1.1268905229267799E-004   303763.00271793146        1.3053943034524451E-005
   43.801347900000003        24.999865400000001        1.2098203942742916        205.79008794322914       -1.0375045341646209E-002   267500.19953456841       0.50003673447544605        5.0669166794146554E-005   303763.52933328861        6.3298311105963734E-006
   40.950897599999998        29.389196699999999        1.2098302054478638        205.79365461632500       -5.2824598643847979E-003   267502.68356822088       0.50004135337686273        4.5134436355770707E-006   303763.78679263708        3.0536960096139154E-006
   37.657244499999997        33.456526799999999        1.2098365174619525        205.79456449791587       -1.1389090877148061E-003   267504.18095961300       0.50004082557691965       -2.8262503019401013E-005   303763.91375950782        1.4853084855381837E-006
   33.956511599999999        37.157258100000000        1.2098411949719228        205.79413744348597        2.2956580212921789E-003   267505.18187200150       0.50003768000657201       -5.4347600959174879E-005   303763.94396418874        6.3745087386379851E-007
   29.889186100000000        40.450905300000002        1.2098494319027358        205.79099569427765        5.1339816559161462E-003   267506.80980470503       0.50002606257732374       -1.0649597314352704E-004   303763.97574221488        2.3173570795620435E-007
   25.499903400000001        43.301326000000003        1.2098527576971707        205.79243404100760        8.1008499826010147E-003   267507.93914835295       0.50002793758179132       -1.2781669954170608E-004   303764.38256843120        1.1428608814867403E-007
   20.836748300000000        45.677310200000001        1.2098584078080314        205.78984250695754        1.0455623456178996E-002   267509.02964167600       0.50001886040362520       -1.6468572437796478E-004   303764.39860239072        2.8101605042962774E-008
   15.950712800000000        47.552870300000002        1.2098635370874207        205.78907825254407        1.2450944862705274E-002   267510.30446022848       0.50001446480549616       -1.9849130094683334E-004   303764.65344408480        8.5041180764022783E-009
   10.895301099999999        48.907440299999998        1.2098682624199746        205.78794254572213        1.4746500483902374E-002   267511.40847349650       0.50000936376710980       -2.2970312016051535E-004   303764.83100977959        2.4349258165301535E-009
   5.7263210200000003        49.726105500000003        1.2098721762387523        205.78676615253491        1.6923715620769778E-002   267512.28365883010       0.50000456528972870       -2.5557431876326785E-004   303764.94593994517        8.3133122608103349E-010
  0.49986951099999999        50.000000000000000        1.2098768270122919        205.78505348063717        1.8337389019514653E-002   267513.27043984737       0.49999809799172357       -2.8632495262344109E-004   303765.03865610814        3.1864244576240708E-010
  -4.7261038099999997        49.726128299999999        1.2098816998940964        205.78304960856747        1.9283971418373316E-002   267514.26883427775       0.49999081289606229       -3.1854657398570072E-004   303765.10648230516        1.9626078540113667E-010
  -9.8954813000000001        48.907401999999998        1.2098856560792606        205.78099814729345        1.9834616397555630E-002   267515.00721248932       0.49998386673027878       -3.4470688970260593E-004   303765.10188081983        1.4143264337462824E-010
  -14.950627500000000        47.552897999999999        1.2098889648141189        205.77889153676875        2.0081951654567456E-002   267515.55827845546       0.49997710760968783       -3.6658610185259029E-004   303765.04309360491        1.2043765984515176E-010
  -19.836649399999999        45.677354200000003        1.2098916567866078        205.77683252548897        1.9890417410942249E-002   267515.94793215417       0.49997076991931200       -3.8438698269227262E-004   303764.94675603200        1.0860956578540026E-010
  -24.499891399999999        43.301332899999998        1.2098942786662383        205.77477435008836        1.9145752825119582E-002   267516.31846035999       0.49996446892453289       -4.0172437099556977E-004   303764.84550534637        9.4780405746064389E-011
  -28.889242500000002        40.450864299999999        1.2098963277922983        205.77295894705500        1.8045250242648067E-002   267516.57286449760       0.49995904175695355       -4.1527439104892055E-004   303764.73729527130        8.3969053932264615E-011
  -32.956512500000002        37.157257299999998        1.2098976794696064        205.77125312438835        1.6613739509243820E-002   267516.65422059997       0.49995422664117234       -4.2421248403594038E-004   303764.59445743001        7.8062001307444007E-011
  -36.657262799999998        33.456506400000002        1.2098988554405374        205.76955345131196        1.5073599356427441E-002   267516.68833738839       0.49994951360757489       -4.3198875493336746E-004   303764.43988516717        8.1595175061011105E-011
  -39.950886300000001        29.389212300000001        1.2098987232231493        205.76824090687313        1.3526985183971923E-002   267516.42875544680       0.49994638987300538       -4.3111447286958417E-004   303764.24588633707        8.5381035574982889E-011
  -42.801281899999999        24.999979600000000        1.2098988437702949        205.76698417771897        1.1343076694396340E-002   267516.24813008978       0.49994327635909686       -4.3191155836518329E-004   303764.07786049368        7.7105433149426972E-011
  -45.177315200000002        20.336736999999999        1.2098991199978988        205.76596090471469        9.0737695140650637E-003   267516.15000091703       0.49994065291657697       -4.3373811526606533E-004   303763.95382333396        7.1483041708120254E-011
  -47.052854500000002        15.450761300000000        1.2098989632572288        205.76519175415510        6.9100720089522224E-003   267515.97609914764       0.49993886166075791       -4.3270163506635342E-004   303763.83445137681        6.9172223504665453E-011
  -48.407414199999998        10.395423700000000        1.2098996064459924        205.76469627283907        4.2570689134847246E-003   267516.06859376363       0.49993733871508250       -4.3695475018466832E-004   303763.81093425659        6.0390803469090315E-011
  -49.226125300000000        5.2261324199999999        1.2098993058493754        205.76447191281008        2.1329265831722278E-003   267515.94781503041       0.49993694256764282       -4.3496700516303214E-004   303763.75782744272        5.8190119389678330E-011
  -49.500000000000000       -5.6680464400000003E-014   1.2098993218792402        205.76450270101429       -2.8200514517754609E-004   267515.95745315275       0.49993700939941615       -4.3507296433173393E-004   303763.76330154767        5.1138648871074111E-011
  -49.226125300000000       -5.2261324199999999        1.2098986432210352        205.76460051644744       -2.3468497438264317E-003   267515.78756928351       0.49993758359843926       -4.3058529007331746E-004   303763.72836771363        5.7554627730382890E-011
  -48.407414199999998       -10.395423700000000        1.2098982730720576        205.76504702264967       -4.8473200586756039E-003   267515.76178026223       0.49993885210063582       -4.2813761634170086E-004   303763.76458110684        5.4321436238069509E-011
  -47.052854500000002       -15.450761300000000        1.2098977835024065        205.76573083910912       -7.2802871709527752E-003   267515.74353581714       0.49994075646754599       -4.2490030972819250E-004   303763.82559139247        5.9912075300871948E-011
  -45.177315200000002       -20.336736999999999        1.2098970827652573        205.76654819143795       -9.0840694028312824E-003   267515.68996452726       0.49994308999177572       -4.2026662454840602E-004   303763.89022318460        6.3955507556556768E-011
  -42.801281899999999       -24.999979600000000        1.2098957131504722        205.76771726218610       -1.1532834986437436E-002   267515.51238541323       0.49994660986800760       -4.1120991286755151E-004   303763.95631809329        6.8670846786744733E-011
  -39.950886300000001       -29.389212300000001        1.2098953984166469        205.76930993297216       -1.3269083201636408E-002   267515.69676775078       0.49995063584467764       -4.0912866089659350E-004   303764.15762906638        6.1992189159809641E-011
  -36.657262799999998       -33.456506400000002        1.2098951961306661        205.77067684350789       -1.4564408860216560E-002   267515.87365825579       0.49995405750189975       -4.0779097175441825E-004   303764.33527104429        5.3274051836638137E-011
  -32.956512500000002       -37.157257299999998        1.2098933004049286        205.77221073066767       -1.5801326012976704E-002   267515.61352953402       0.49995872458897705       -3.9525530342611362E-004   303764.41490695172        5.8848259598676123E-011
  -28.889242500000002       -40.450864299999999        1.2098908430960718        205.77396266177246       -1.6905091071977851E-002   267515.23614238028       0.49996419993714836       -3.7900610461282284E-004   303764.48490901402        6.2587934834823500E-011
  -24.499891399999999       -43.301332899999998        1.2098879834004643        205.77564420693915       -1.7492374595587740E-002   267514.73619260261       0.49996970373735428       -3.6009613619119468E-004   303764.51615135930        7.3259842636730355E-011
  -19.836649399999999       -45.677354200000003        1.2098846743320442        205.77757634425924       -1.7871198720061116E-002   267514.15536315332       0.49997603922715012       -3.3821471475946194E-004   303764.55038870790        9.2386764904972551E-011
  -14.950627500000000       -47.552897999999999        1.2098804347940126        205.77947441078013       -1.7692027349859037E-002   267513.31301372754       0.49998275327443381       -3.1018059764173820E-004   303764.51309154188        1.2698997409188451E-010
  -9.8954813000000001       -48.907401999999998        1.2098756232399812        205.78158183749801       -1.7379179823046081E-002   267512.34907125990       0.49999025969944183       -2.7836408804204053E-004   303764.46420055104        1.7307022481816148E-010
  -4.7261038099999997       -49.726128299999999        1.2098709548346580        205.78351979047932       -1.6490259463554126E-002   267511.39565417694       0.49999728330955612       -2.4749437068738716E-004   303764.40176290448        2.4749513549693347E-010
  0.49986951099999999       -50.000000000000000        1.2098667565728374        205.78512954143847       -1.4796044373649713E-002   267510.51562396123       0.50000327624691143       -2.1973355636166944E-004   303764.32691005355        3.2313840492292911E-010
   5.7263210200000003       -49.726105500000003        1.2098623561771085        205.78632288346765       -1.2823912338519908E-002   267509.50925272697       0.50000835766747520       -1.9063693663587666E-004   303764.17905948876        5.3445159409193366E-010
   10.895301099999999       -48.907440299999998        1.2098576086935446        205.78724452735682       -1.0741013898046423E-002   267508.36139954050       0.50001295102112020       -1.5924787302501502E-004   303763.96825257188        1.2083765099646371E-009
   15.950712800000000       -47.552870300000002        1.2098525411539645        205.78808110257719       -8.5986410080053175E-003   267507.11153689859       0.50001749608050394       -1.2575194409333306E-004   303763.72301155620        3.5382681229378932E-009
   20.836748300000000       -45.677310200000001        1.2098476682817194        205.78930572663108       -6.5856910563241947E-003   267505.98279900278       0.50002288596591382       -9.3580101232510081E-005   303763.54816034430        1.2306346164336901E-008
   25.499903400000001       -43.301326000000003        1.2098430663344082        205.79108640044933       -4.5060495049694775E-003   267505.02902027970       0.50002948675315861       -6.3334874610882267E-005   303763.47776580509        4.4712039626304545E-008
   29.889186100000000       -40.450905300000002        1.2098389189836010        205.79333081912498       -2.0804743204120560E-003   267504.29777569731       0.50003697027695337       -3.6523238300911294E-005   303763.52683472319        1.5193507341138002E-007
   33.956511599999999       -37.157258100000000        1.2098351466399713        205.79539678941666        8.6654049326291940E-004   267503.68897346879       0.50004378461735843       -1.3327827146609450E-005   303763.63526146387        4.5803896187024407E-007
   37.657244499999997       -33.456526799999999        1.2098319702289164        205.79617732394229        4.4622441101724334E-003   267503.12667035306       0.50004707882039179        3.6101498824012076E-006   303763.72300956276        1.1695880355322430E-006
   40.950897599999998       -29.389196699999999        1.2098278010092276        205.79476175282716        8.9022191003985309E-003   267502.08141215128       0.50004536608579486        2.3377194724577883E-005   303763.61991737742        2.5349183856437918E-006
   43.801347900000003       -24.999865400000001        1.2098199819815492        205.79142340938236        1.3821740291222701E-002   267500.03367972787       0.50004046419229231        5.9789558539965336E-005   303763.36383577611        5.2108444967835510E-006
   46.177352800000001       -20.336652600000001        1.2098066105137735        205.78307727513135        1.9732126068785855E-002   267496.40142173343       0.50002535509904600        1.1478653239901179E-004   303762.92331660434        1.1059781946487490E-005
   48.052903399999998       -15.450610800000000        1.2097892104449344        205.76420101652769        2.3162828272010577E-002   267490.80902659037       0.49998571819281268        1.7498086616396909E-004   303761.79890567751        2.0661332764460028E-005
   49.407436099999998       -10.395320800000000        1.2097624420751709        205.73647397395578        2.2271615140721800E-002   267482.60213753866       0.49992775287400398        2.6362963566456795E-004   303760.45398513088        3.6125048349600064E-005
   50.226114400000000       -5.2262365800000001        1.2097348368251413        205.71297856878397        1.4176449312904316E-002   267474.41766116006       0.49988094908328645        3.6849781857537379E-004   303759.10303924722        4.9719279856530463E-005
   1.0000000000000000        0.0000000000000000        1.2605985424461603        164.09587635316737        6.8787824260642196        276833.64743072790       0.37891861772258417      -0.36878752910652224        304051.93746006739        5.0078063368077519E-003
  0.99845866699999997       -2.1763127300000000E-004   1.2503582363040282        166.07951293263704        21.706920364777734        274058.03047943185       0.39042484647773495      -0.29348131419788120        303268.24942487333        3.9654109732785159E-003
  0.99653422800000002       -4.8878071900000002E-004   1.2456232464809602        169.35916208446974        23.310138641224317        273084.71592975722       0.40038934683444782      -0.25950363710245422        303162.31705364393        3.6041031974491933E-003
  0.99384417000000003       -8.6673882899999998E-004   1.2412508629275438        172.24296424084406        23.737715583676795        272211.86606398830       0.40896683123874827      -0.22935276673088253        303101.93589266436        3.4665668599587196E-003
  0.99039264000000005       -1.3498757500000000E-003   1.2370873776845570        174.69391007195327        24.009925731794553        271368.09842181607       0.41645166773122605      -0.20115424877036467        303041.08225319680        3.4146451187717641E-003
  0.98618496000000000       -1.9361257200000001E-003   1.2333962587610503        176.85925022937874        24.155099077413819        270626.34781794483       0.42308762010529288      -0.17622196433291043        302992.83749179164        3.3742685625088864E-003
  0.98122761800000002       -2.6230084000000002E-003   1.2301714168365254        179.05828689360516        24.319622225091813        270020.70834237925       0.42966754223219328      -0.15425949761409682        302982.36851340847        3.3038539364016462E-003
  0.97552825799999998       -3.4076537099999998E-003   1.2273214836032293        180.98540709147520        24.346766397377941        269494.22514073184       0.43543429602921807      -0.13504790924223908        302983.01506199804        3.2718618544875788E-003
  0.96909566800000002       -4.2868298100000000E-003   1.2245446101864377        182.76013104353703        24.351450625948797        268977.44965310924       0.44082754420465431      -0.11650473280427315        302983.06765704241        3.2678339415059821E-003
  0.96193976599999997       -5.2569732900000004E-003   1.2218515461759258        184.50220059677537        24.331157999289619        268485.76632033905       0.44612609349377069       -9.8591888958373730E-002   302991.90235980309        3.2733334553629589E-003
  0.95407158700000005       -6.3142209300000003E-003   1.2192872630792735        186.08293955788628        24.306394519498284        268012.44258867990       0.45100756618144144       -8.1612291801333378E-002   302997.22541363380        3.2893282505666033E-003
  0.94550326200000001       -7.4544422900000001E-003   1.2168429028082102        187.57585411986216        24.292425921313281        267562.00760775595       0.45565439055782136       -6.5420682241230488E-002   303002.85163851618        3.3012857886269842E-003
  0.93624800399999997       -8.6732722900000007E-003   1.2144511518235519        189.00255944551844        24.247634560692116        267117.82430307829       0.46013256648170492       -4.9570729875024089E-002   303005.44531852519        3.3096617811845253E-003
  0.92632008200000004       -9.9661430400000001E-003   1.2121103199465895        190.35496344014254        24.156378100332073        266677.53599549650       0.46441695263228783       -3.4051443424756050E-002   303003.30771180405        3.3146066801070795E-003
  0.91573480600000001       -1.1328314200000000E-002   1.2098419405715108        191.62956495056255        24.033002673212003        266246.61754790053       0.46849170766460618       -1.9007944338033645E-002   302997.64314721117        3.3166217961111411E-003
  0.90450849700000002       -1.2754901100000000E-002   1.2076703161890570        192.83536418756486        23.887492923032049        265833.52618390718       0.47236763624431444       -4.6111841691799270E-003   302991.81573126046        3.3175963176974577E-003
  0.89265846500000001       -1.4240900200000000E-002   1.2055766202643889        193.98499616169278        23.718135512093451        265435.04181930341       0.47608112883283349        9.2567686466184206E-003   302986.17460570979        3.3189585260307020E-003
  0.88020298299999999       -1.5781211199999999E-002   1.2035390648108799        195.09138363467017        23.520787596161437        265046.90989256813       0.47967099718560402        2.2740435312704154E-002   302980.57033312455        3.3208509183475510E-003
  0.86716125499999996       -1.7370655700000001E-002   1.2015607021516816        196.16483428903987        23.295654541027051        264671.36542762705       0.48315986841228714        3.5822528254034536E-002   302976.34612323192        3.3228948965358107E-003
  0.85355339100000005       -1.9003991299999998E-002   1.1996682215440773        197.21249316334985        23.048167184691692        264316.94941155013       0.48655270903677689        4.8325808773715326E-002   302976.47402061801        3.3253623625815187E-003
  0.83940037300000003       -2.0675922499999999E-002   1.1978715243504752        198.24408404834375        22.769249354683449        263988.51212763379       0.48986383588778820        6.0166479881312379E-002   302983.74354170100        3.3317039975040430E-003
  0.82472402400000000       -2.2381106500000001E-002   1.1961026670306116        199.26656021077315        22.439941129996139        263669.74691177096       0.49313596090252754        7.1755632025800056E-002   302995.74889422453        3.3488361963422975E-003
  0.80954697499999995       -2.4114156000000001E-002   1.1943693744004220        200.20132775993380        22.098135280448282        263351.98226002010       0.49618154203645842        8.3003772370375914E-002   303004.60142425657        3.3837419452806827E-003
  0.79389262599999999       -2.5869637300000001E-002   1.1926350031719903        201.08717072952030        21.762991139802736        263027.76417535340       0.49912171442867553        9.4244548315322876E-002   303008.45071517723        3.4201893645267045E-003
  0.77778511699999997       -2.7642065899999999E-002   1.1908501769529438        201.95883213135053        21.421158148209624        262687.92087127239       0.50206379444465810       0.10582989220641406        303006.96489036042        3.4534672527593013E-003
  0.76124928199999997       -2.9425898299999999E-002   1.1890406115240075        202.81932021245555        21.056197460605670        262340.16873049625       0.50499792788171227       0.11757970669456411        303002.70686428703        3.4853607627030048E-003
  0.74431062100000001       -3.1215522799999999E-002   1.1872359192812072        203.66369246502776        20.669291065436575        261992.03309331744       0.50789725412927278       0.12929310737718316        302997.40588375146        3.5168623192063375E-003
  0.72699524999999998       -3.3005247400000000E-002   1.1854442993752885        204.48946116843476        20.260724660195866        261645.85818317541       0.51075095024477846       0.14090345040139762        302991.92293592665        3.5502606025528127E-003
  0.70932986899999995       -3.4789287900000000E-002   1.1836504986241103        205.29909424837942        19.828844298597012        261298.35059181918       0.51357209679710458       0.15249969297050850        302986.06419860484        3.5876471584985747E-003
  0.69134171600000005       -3.6561755699999997E-002   1.1818385688647335        206.09553790158188        19.369644382842718        260945.80403461948       0.51637540657232739       0.16418202778571622        302979.29681913467        3.6298844843019040E-003
  0.67305852899999996       -3.8316646599999997E-002   1.1800140667563339        206.87799638159188        18.879412528049063        260589.53165085928       0.51915562608684918       0.17591407714504087        302971.84192351246        3.6769411678134745E-003
  0.65450849700000002       -4.0047830999999999E-002   1.1781709036875485        207.65119731434086        18.358122690180632        260228.48553061587       0.52192854702282487       0.18774120627917171        302963.69847832521        3.7278442022234959E-003
  0.63572022500000003       -4.1749047499999997E-002   1.1763074671053562        208.41634799241933        17.802911360684959        259862.30664174742       0.52469826394077035       0.19967673367233951        302954.77480851806        3.7820811634450280E-003
  0.61672268200000002       -4.3413899100000000E-002   1.1744229210631862        209.17381476302702        17.210272889122592        259490.68622812349       0.52746639974524479       0.21172922097053218        302944.89189554669        3.8390689570850789E-003
  0.59754516099999999       -4.5035853799999997E-002   1.1725159080696790        209.92421237518309        16.576298562095719        259113.11022284642       0.53023570349647053       0.22391328439929145        302933.73872480600        3.8977347651190097E-003
  0.57821723300000005       -4.6608250099999998E-002   1.1705870946112482        210.66900033836666        15.896838519198267        258729.55469807255       0.53301036350422693       0.23623534498033535        302921.01954077813        3.9560634117639104E-003
  0.55876869900000004       -4.8124307999999998E-002   1.1686423315647347        211.40981783579946        15.168343335945851        258341.52514623650       0.53579244224436051       0.24866629043410488        302906.93354370509        4.0123140015331238E-003
  0.53922954800000000       -4.9577144800000000E-002   1.1666864718428818        212.14788085010369        14.387631589594937        257950.63487893861       0.53858322346465981       0.26117366574996026        302892.08305477304        4.0665637868135818E-003
  0.51962990799999997       -5.0959797600000002E-002   1.1647232776260859        212.88318388350513        13.550912661143203        257558.22526127921       0.54138129901531573       0.27372677590586747        302877.09832839493        4.1198963810045175E-003
  0.50000000000000000       -5.2265251999999998E-002   1.1627623674955434        213.61166870430742        12.653953708959998        257166.78948041477       0.54417144817971963       0.28624958395197841        302862.76164902188        4.1747241912128974E-003
  0.48037009200000003       -5.3486475700000001E-002   1.1608154464060394        214.32754894963307        11.692647197542911        256778.97323577516       0.54693302804340360       0.29865451316205777        302849.62208580936        4.2331242100956956E-003
  0.46077045200000000       -5.4616459100000000E-002   1.1588899590525157        215.02454739210103        10.662774027300472        256395.92571723385       0.54964684083196214       0.31088767118210514        302837.54616226105        4.2961354341246594E-003
  0.44123130100000002       -5.5648259899999997E-002   1.1569891564921075        215.69573155902174        9.5601225752159653        256017.33693438894       0.55229476386480281       0.32292741112837525        302825.74842958990        4.3639168802642736E-003
  0.42178276700000000       -5.6575053700000003E-002   1.1551171326559475        216.33117509921513        8.3800944753079314        255642.35256770428       0.55485092895873678       0.33475142769086863        302812.75612184824        4.4357337728082591E-003
  0.40245483900000001       -5.7390187500000002E-002   1.1532971088523103        216.91505109023745        7.1167483221999337        255273.97884975889       0.55726348093746214       0.34621591171795990        302797.25641748286        4.5102675077051124E-003
  0.38327731799999998       -5.8087237200000003E-002   1.1515358665850131        217.44482079950313        5.7609614801289082        254913.66299113425       0.55952364706075364       0.35727609135497485        302779.39359927172        4.5877540371972447E-003
  0.36427977499999997       -5.8660066499999997E-002   1.1497985261405355        217.91736243017809        4.2986997014492747        254552.45970900584       0.56164515573723839       0.36814034954218500        302757.39242813177        4.6718341366218663E-003
  0.34549150299999998       -5.9102887200000002E-002   1.1480928637386938        218.35811082765451        2.7369256953012386        254198.85541663159       0.56369219075005850       0.37872898014466633        302737.79172553692        4.7680763288515671E-003
  0.32694147099999998       -5.9410319400000001E-002   1.1464532616456993        218.78531524369052        1.0757297871550675        253866.89919913639       0.56569500045189480       0.38879394905053455        302727.56570342300        4.8812248950269588E-003
  0.30865828400000000       -5.9577449999999997E-002   1.1448799263905338        219.17743751715733      -0.68350387552722214        253553.64116044241       0.56760178051628407       0.39831731833911460        302724.39938935905        5.0146295600939084E-003
  0.29067013100000000       -5.9599889000000003E-002   1.1433903911496912        219.49635032669576       -2.5162519898360198        253256.93759674783       0.56930721787836758       0.40718078285418458        302723.61616469501        5.1693362321818537E-003
  0.27300475000000002       -5.9473821400000002E-002   1.1419401386887751        219.68876625721904       -4.4009066989689414        252954.90499032347       0.57070166936101163       0.41567225424576992        302713.45128296124        5.3458161604460486E-003
  0.25568937899999999       -5.9196054099999999E-002   1.1405062483301789        219.85945839537868       -6.3999029293830150        252657.44769406985       0.57208368196198245       0.42404696652137719        302704.72107049701        5.5240119560449052E-003
  0.23875071800000000       -5.8764056699999997E-002   1.1391578531124165        220.04475079413837       -8.5735533218129092        252388.38736597347       0.57352318646469758       0.43191503369961626        302705.96242134762        5.6927338033918584E-003