 title = "grid"
               variables = "x","y","rho","rhou","rhov","rhoe","mach","Cp","Total Enthalpy","Entropy"
 zone n=        6722  e =       13226  et=quadrilateral, f=fepoint
   50.500000000000000        0.0000000000000000        1.2096938238857133        205.69175728282278        2.1875025664790755E-003   267474.77375058125       0.49983448245024609        2.9142920077512315E-004   303770.81083145604        1.1067614861914876E-004
   50.226114400000000        5.2262365800000001        1.2097164906655213        205.70636242781001       -1.3970699112413016E-002   267477.86195839749       0.49986435906015408        2.7011829049858668E-004   303767.98012082127        8.8171085539157090E-005
   49.407436099999998        10.395320800000000        1.2097633982822296        205.74157920377371       -2.2107299886157193E-002   267485.57919251418       0.49993783817449816        2.1511164711888087E-004   303763.37659122882        4.3509773971717181E-005
   48.052903399999998        15.450610800000000        1.2098024823689937        205.77131970868658       -2.2563700971783611E-002   267494.00246081693       0.49999809842240128        1.2527491423284772E-004   303761.82517844404        1.4001450951317551E-005
   46.177352800000001        20.336652600000001        1.2098243688096018        205.78847482301987       -1.7340836426038387E-002   267500.12937095860       0.50003173297046977        4.4688706877475082E-005   303762.55991618574        2.7770931128046072E-006
   43.801347900000003        24.999865400000001        1.2098343514928935        205.79546988762121       -1.1165019767502785E-002   267503.45034295216       0.50004438992944689       -7.3250942547539534E-006   303763.55083538085        3.2769309932234592E-007
   40.950897599999998        29.389196699999999        1.2098410464328806        205.79687481914431       -6.0795687677198161E-003   267505.44977847760       0.50004456205608139       -4.9778763637212780E-005   303764.13661150297        9.7973482660052014E-009
   37.657244499999997        33.456526799999999        1.2098460676287257        205.79650100673467       -2.1936456215396003E-003   267506.76403064409       0.50004116531770337       -8.2932933750895003E-005   303764.44176678895        1.3104231033622682E-009
   33.956511599999999        37.157258100000000        1.2098496466109245        205.79591008713464        1.3829606733509906E-003   267507.64702971809       0.50003795452649868       -1.0659679490740281E-004   303764.61530001694        9.2556828867884633E-010
   29.889186100000000        40.450905300000002        1.2098558494141551        205.79464284067748        3.4657048714755601E-003   267509.13615021016       0.50003179915943019       -1.4761187213755748E-004   303764.88201956591        7.3381412057926809E-010
   25.499903400000001        43.301326000000003        1.2098577522879159        205.79404525302510        7.2289441742927479E-003   267509.55745289609       0.50002940369516757       -1.6019388007698583E-004   303764.93447333691        5.9319194001261621E-010
   20.836748300000000        45.677310200000001        1.2098615147404304        205.79278872991682        1.0111534369557579E-002   267510.37775268586       0.50002448498745600       -1.8507249315152880E-004   303765.02768596960        4.6305093093224059E-010
   15.950712800000000        47.552870300000002        1.2098657440376910        205.79112706492378        1.2363316647663224E-002   267511.25745846052       0.50001835039326736       -2.1303838653922351E-004   303765.09744272562        3.7056580026728625E-010
   10.895301099999999        48.907440299999998        1.2098698958600915        205.78958897999607        1.4558899217782346E-002   267512.13690994453       0.50001255457897298       -2.4049220606767844E-004   303765.17903380422        3.1205860118177497E-010
   5.7263210200000003        49.726105500000003        1.2098733475856380        205.78773820755032        1.6684691207844077E-002   267512.77077407081       0.50000634630820806       -2.6331661855136717E-004   303765.16645175673        2.5236213119228523E-010
  0.49986951099999999        50.000000000000000        1.2098772960348585        205.78556508124043        1.8069087828196013E-002   267513.48632482364       0.49999910841087025       -2.8942566981256414E-004   303765.14418323006        1.9093482350740487E-010
  -4.7261038099999997        49.726128299999999        1.2098817629829897        205.78346313124587        1.8915017374544364E-002   267514.35648736695       0.49999178627645385       -3.1896342613118976E-004   303765.16911966330        1.3876788607092294E-010
  -9.8954813000000001        48.907401999999998        1.2098856994549234        205.78133894454405        1.9470698125224326E-002   267515.07708291663       0.49998467317601758       -3.4499351507152572E-004   303765.15288593428        1.0638578906707608E-010
  -14.950627500000000        47.552897999999999        1.2098888509877197        205.77919176000847        1.9651400431276941E-002   267515.57804107072       0.49997789340977666       -3.6583321217081648E-004   303765.07711617392        8.5244922232163844E-011
  -19.836649399999999        45.677354200000003        1.2098912343044181        205.77702512628522        1.9354062806980082E-002   267515.86455693742       0.49997144726403747       -3.8159305426940728E-004   303764.94350476091        7.0130568019521888E-011
  -24.499891399999999        43.301332899999998        1.2098934775439087        205.77490080635366        1.8660840314575586E-002   267516.11977173010       0.49996517332973678       -3.9642665668340808E-004   303764.80579455319        5.9217741821271375E-011
  -28.889242500000002        40.450864299999999        1.2098955143880585        205.77291826267179        1.7443044333009305E-002   267516.34237267007       0.49995934613231197       -4.0989547322387818E-004   303764.67320761795        5.1140647272518436E-011
  -32.956512500000002        37.157257299999998        1.2098969931638575        205.77135378179736        1.6126619744588733E-002   267516.48270099435       0.49995481143335740       -4.1967401918456234E-004   303764.55935745599        4.5501602485842341E-011
  -36.657262799999998        33.456506400000002        1.2098979863045713        205.76969865211433        1.4773618297249923E-002   267516.47414711223       0.49995029732039276       -4.2624130877832490E-004   303764.39793288318        5.0332626955196247E-011
  -39.950886300000001        29.389212300000001        1.2098978566173166        205.76838870354956        1.2993106397092120E-002   267516.21569908899       0.49994717860549426       -4.2538374648928384E-004   303764.20447771571        5.2143178663754952E-011
  -42.801281899999999        24.999979600000000        1.2098977217761842        205.76725938402708        1.0867698033560391E-002   267515.98655231227       0.49994450130767631       -4.2449204264308470E-004   303764.03604059824        4.3287151640925003E-011
  -45.177315200000002        20.336736999999999        1.2098978233281681        205.76621338211885        8.8049737487498041E-003   267515.83655303228       0.49994190928428178       -4.2516356633194466E-004   303763.89628048573        4.3105741198701253E-011
  -47.052854500000002        15.450761300000000        1.2098975874348519        205.76548552751493        6.5984763736360768E-003   267515.64792058134       0.49994025761232297       -4.2360369284620650E-004   303763.77703538130        4.3008929750953939E-011
  -48.407414199999998        10.395423700000000        1.2098977999446954        205.76497715094683        4.0900637914107248E-003   267515.61985532363       0.49993891690053366       -4.2500889948569247E-004   303763.72081002558        3.5963676481287621E-011
  -49.226125300000000        5.2261324199999999        1.2098976442791551        205.76486543219227        2.0052275244893504E-003   267515.55806624651       0.49993872257434158       -4.2397952337549740E-004   303763.69393368973        3.2640112834769752E-011
  -49.500000000000000       -5.6680464400000003E-014   1.2098973992830744        205.76483444870186       -2.0436771525964432E-004   267515.48545971571       0.49993876875327481       -4.2235944081081220E-004   303763.67200037441        2.9734659179325718E-011
  -49.226125300000000       -5.2261324199999999        1.2098970892879621        205.76484732815550       -2.3040233077913372E-003   267515.40245487745       0.49993895378609943       -4.2030960279267423E-004   303763.65157570346        3.7021941068360320E-011
  -48.407414199999998       -10.395423700000000        1.2098963583462570        205.76531451174390       -4.7195601292464237E-003   267515.28102264128       0.49994045142240445       -4.1547616363137171E-004   303763.66481328360        3.6887826126985601E-011
  -47.052854500000002       -15.450761300000000        1.2098961216325899        205.76596637821268       -7.0884441555866271E-003   267515.32683847495       0.49994215277823184       -4.1391087956560251E-004   303763.73947124137        3.9123815298580666E-011
  -45.177315200000002       -20.336736999999999        1.2098954595638236        205.76682348651167       -8.9749219814235243E-003   267515.29065604624       0.49994456373248836       -4.0953287573647693E-004   303763.81246514159        3.9608094581922160E-011
  -42.801281899999999       -24.999979600000000        1.2098944207425397        205.76808934105460       -1.1283671658250772E-002   267515.22045159986       0.49994815471963061       -4.0266357897198769E-004   303763.91589497135        4.4450665370732168E-011
  -39.950886300000001       -29.389212300000001        1.2098940396872799        205.76978947126534       -1.2883224770080172E-002   267515.40488008154       0.49995247465415094       -4.0014374647040062E-004   303764.12755173002        3.3663072329659371E-011
  -36.657262799999998       -33.456506400000002        1.2098934789766105        205.77098835435802       -1.4181246649904056E-002   267515.45468605432       0.49995566578960526       -3.9643596235629448E-004   303764.25586347049        2.9779956278730424E-011
  -32.956512500000002       -37.157257299999998        1.2098917228702613        205.77247169984491       -1.5457475495187351E-002   267515.22433502658       0.49996014085627855       -3.8482353573199372E-004   303764.33841122477        3.2979841080305050E-011
  -28.889242500000002       -40.450864299999999        1.2098893632700278        205.77427165324920       -1.6611322957882677E-002   267514.88197184831       0.49996568444792511       -3.6922047031694101E-004   303764.42217556218        3.9639846960426439E-011
  -24.499891399999999       -43.301332899999998        1.2098868733141235        205.77625370788135       -1.7421902916276231E-002   267514.53475481155       0.49997173509923459       -3.5275544092125665E-004   303764.52218901634        4.8633541638309907E-011
  -19.836649399999999       -45.677354200000003        1.2098839673904780        205.77838371386576       -1.7779309498402888E-002   267514.09837810998       0.49997835144254810       -3.3353981899064309E-004   303764.61316172557        6.0836669035779778E-011
  -14.950627500000000       -47.552897999999999        1.2098804983867073        205.78060966520559       -1.7835864542104760E-002   267513.52356964018       0.49998548010971039       -3.1060085335879461E-004   303764.67723435111        8.2152284974768008E-011
  -9.8954813000000001       -48.907401999999998        1.2098762904885292        205.78290957740958       -1.7521297124214876E-002   267512.75827161386       0.49999315487405005       -2.8277598636590749E-004   303764.69870566460        1.1510437047945743E-010
  -4.7261038099999997       -49.726128299999999        1.2098722228416043        205.78537709091816       -1.6700123950738294E-002   267512.06003208208       0.50000116726837829       -2.5587865508859981E-004   303764.75380628783        1.6145373926690354E-010
  0.49986951099999999       -50.000000000000000        1.2098684238207345        205.78757701251314       -1.4988489006315876E-002   267511.39010506717       0.50000839617455328       -2.3075768607419122E-004   303764.79055794259        2.1152368745447347E-010
   5.7263210200000003       -49.726105500000003        1.2098647412045627        205.78953851386103       -1.3049650870239831E-002   267510.71162421315       0.50001498810469402       -2.0640647822292525E-004   303764.80214778247        2.6123370133745993E-010
   10.895301099999999       -48.907440299999998        1.2098609854037654        205.79130863476504       -1.0813943290229366E-002   267509.98048516747       0.50002115137616410       -1.8157138525691285E-004   303764.78158915072        3.1470825945234537E-010
   15.950712800000000       -47.552870300000002        1.2098570783280767        205.79264971610715       -8.2519391968202734E-003   267509.13480006962       0.50002634728261464       -1.5573599846601223E-004   303764.68986561120        3.6561864646955655E-010
   20.836748300000000       -45.677310200000001        1.2098534733359412        205.79373687599116       -5.6537767208863655E-003   267508.32895816321       0.50003077650941807       -1.3189824238319750E-004   303764.58412278979        4.2752068551976663E-010
   25.499903400000001       -43.301326000000003        1.2098501678384108        205.79471328223363       -2.9800638542163871E-003   267507.58660424262       0.50003478819109071       -1.1004110557426302E-004   303764.48430817202        5.2056803312439115E-010
   29.889186100000000       -40.450905300000002        1.2098469515199519        205.79556659432012       -2.2757696499669809E-004   267506.84784268495       0.50003845664750168       -8.8773981593216660E-005   303764.37360581482        6.6462946257672684E-010
   33.956511599999999       -37.157258100000000        1.2098438206286817        205.79615078898235        2.6933065807786798E-003   267506.08680744626       0.50004142893621351       -6.8072143508054867E-005   303764.23122034594        8.7445339858049920E-010
   37.657244499999997       -33.456526799999999        1.2098408406872434        205.79644130697500        5.9510886381085159E-003   267505.31733663008       0.50004361290051347       -4.8369016939042410E-005   303764.05840760568        1.1778946706897386E-009
   40.950897599999998       -29.389196699999999        1.2098378973953627        205.79634039456121        9.8375528332818492E-003   267504.49341048556       0.50004482575557596       -2.8954895391195488E-005   303763.83556206129        9.6434353835661568E-009
   43.801347900000003       -24.999865400000001        1.2098330249190665        205.79533297810178        1.4333337457581077E-002   267503.01456710068       0.50004476364028838        2.5426240879044472E-006   303763.38098041562        1.3593287051527625E-007
   46.177352800000001       -20.336652600000001        1.2098244363443484        205.78972808152298        1.9854483983991103E-002   267500.12648979633       0.50003497991221924        4.9605734657961883E-005   303762.46945374121        1.8384532676218868E-006
   48.052903399999998       -15.450610800000000        1.2098089152323728        205.77625908597858        2.4758302802669038E-002   267495.44993759796       0.50000807136934933        1.0926679867718903E-004   303761.63800878852        9.3586966352088297E-006
   49.407436099999998       -10.395320800000000        1.2097746182656810        205.74928029189226        2.5876623273008794E-002   267487.73751736287       0.49995322321003249        1.9200791503618743E-004   303762.67763467471        3.4568444309934776E-005
   50.226114400000000       -5.2262365800000001        1.2097218157991250        205.71365026305520        1.7890753543584097E-002   267478.75147672044       0.49988124170403986        2.7635421733638010E-004   303767.28804809478        8.0916390862162402E-005
   1.0000000000000000        0.0000000000000000        1.2582641670581998        161.69948724858037        7.7595218915528124        276749.96119488566       0.37369149659572021      -0.37339514005115915        304613.59878179897        8.3823290427142982E-003
  0.99845866699999997       -2.1763127300000000E-004   1.2485610151618753        163.55673635030854        22.782933851617329        273883.18082441797       0.38511955933344488      -0.29628941767895101        303604.10186654242        6.4594035465914690E-003
  0.99653422800000002       -4.8878071900000002E-004   1.2441710896508815        166.75790614872017        23.327052344673369        273035.47201819875       0.39437305740258843      -0.26608913700300374        303569.20768970205        6.3525910359074622E-003
  0.99384417000000003       -8.6673882899999998E-004   1.2396096055893786        169.50711100839055        23.548969292198080        272100.07296539168       0.40260236518462500      -0.23513127001201173        303494.63935601612        6.3044965924188290E-003
  0.99039264000000005       -1.3498757500000000E-003   1.2354451195683194        172.17592439499458        23.858620761144262        271279.53989608149       0.41058552073720889      -0.20689477447578855        303453.54278497031        6.2580516540147180E-003
  0.98618496000000000       -1.9361257200000001E-003   1.2315436399778392        174.67630129115310        24.034194261493013        270517.96446008608       0.41808585441004875      -0.18047579977191305        303421.07159338548        6.2141532706223579E-003
  0.98122761800000002       -2.6230084000000002E-003   1.2283529887895410        176.67833448471453        24.149666819336826        269897.60918001947       0.42415006847409020      -0.15895044860162144        303397.51311860129        6.1874889138164857E-003
  0.97552825799999998       -3.4076537099999998E-003   1.2255158604762499        178.62136914517228        24.152490042685987        269373.64261350181       0.42992613414148262      -0.13984992455997025        303399.59545591462        6.1672573059528002E-003
  0.96909566800000002       -4.2868298100000000E-003   1.2227161818623804        180.49633105517756        24.180759932559113        268856.73617266136       0.43556485379873067      -0.12103487000159556        303402.25466930430        6.1499435511807032E-003
  0.96193976599999997       -5.2569732900000004E-003   1.2199728869557140        182.24128205567996        24.149404075680149        268341.18438258435       0.44088152057617297      -0.10263850322256000        303398.01986305573        6.1368740835363589E-003
  0.95407158700000005       -6.3142209300000003E-003   1.2174565894103861        183.90249530394013        24.171778507905735        267882.78909120761       0.44594419952853265       -8.5786677912830595E-002   303406.34661444050        6.1261714810920687E-003
  0.94550326200000001       -7.4544422900000001E-003   1.2150761869938604        185.41335322955803        24.155317237811175        267444.60642275109       0.45059852938736045       -6.9897658711330912E-002   303411.27527344268        6.1229362586849856E-003
  0.93624800399999997       -8.6732722900000007E-003   1.2127292124201769        186.80471389503452        24.101058660899735        267001.20812780317       0.45496089517572808       -5.4270613188200111E-002   303407.33948702132        6.1243814634102112E-003
  0.92632008200000004       -9.9661430400000001E-003   1.2104267211313091        188.14663517850954        24.009785274226477        266565.57236390829       0.45919285531505000       -3.8968045049205632E-002   303403.34259064140        6.1286983466091183E-003
  0.91573480600000001       -1.1328314200000000E-002   1.2082053524424476        189.43473882353007        23.887304732035044        266147.19096669735       0.46326749660583511       -2.4235440252114292E-002   303401.49580538360        6.1363505989571188E-003
  0.90450849700000002       -1.2754901100000000E-002   1.2060682560190552        190.65588631786076        23.738248452446140        265744.68457404134       0.46715123704953970       -1.0093312703259291E-002   303400.17301688023        6.1474958403318070E-003
  0.89265846500000001       -1.4240900200000000E-002   1.2040014628024613        191.80911592598204        23.563395624903009        265353.64434241306       0.47084658373420857        3.5533898019714156E-003   303397.85399480973        6.1619607405072330E-003
  0.88020298299999999       -1.5781211199999999E-002   1.2019843601619402        192.90439527650935        23.362550624471570        264969.49692053156       0.47438578174486129        1.6845592447720371E-002   303393.88026942773        6.1792028467460014E-003
  0.86716125499999996       -1.7370655700000001E-002   1.2000039531629032        193.95253916183725        23.135115545820376        264589.97095809859       0.47780004064763754        2.9873952692279798E-002   303388.31453546125        6.1985620176352452E-003
  0.85355339100000005       -1.9003991299999998E-002   1.1980658166904075        194.95932762692496        22.877740163401860        264217.11386988341       0.48109910405194206        4.2606332235073215E-002   303381.91607856750        6.2192809679941785E-003
  0.83940037300000003       -2.0675922499999999E-002   1.1961791704567257        195.92992932373789        22.581873545912554        263853.74403213826       0.48428818711642291        5.4988017768850227E-002   303375.49982802663        6.2403311799428263E-003
  0.82472402400000000       -2.2381106500000001E-002   1.1943202408406057        196.88858856619680        22.243611430425076        263496.76189868088       0.48743682903368568        6.7184495167021782E-002   303370.08521118533        6.2603789643296270E-003
  0.80954697499999995       -2.4114156000000001E-002   1.1925567739962937        197.86953189292950        21.925072421803094        263172.95548176212       0.49061110446287232        7.8717458581976013E-002   303377.92534957500        6.2848527214187655E-003
  0.79389262599999999       -2.5869637300000001E-002   1.1908134419053846        198.79223660611123        21.601777174278116        262849.65695322736       0.49364128708962518        9.0040748226532033E-002   303384.16677695501        6.3218882667051002E-003
  0.77778511699999997       -2.7642065899999999E-002   1.1890357749071390        199.65978279694900        21.267630889604341        262510.38000712439       0.49656135507145860       0.10155419269340264        303382.95049462433        6.3644548618033703E-003
  0.76124928199999997       -2.9425898299999999E-002   1.1872575381496298        200.50519712268840        20.907845173915835        262169.11430382717       0.49943205854850309       0.11304541342208065        303380.52865118638        6.4106069540701416E-003
  0.74431062100000001       -3.1215522799999999E-002   1.1854787524917867        201.33555450605499        20.525070494016237        261827.30688200725       0.50227136020812990       0.12450899312568116        303378.19108638947        6.4613153284580616E-003
  0.72699524999999998       -3.3005247400000000E-002   1.1836912811810858        202.15210909458895        20.120516645565811        261483.01987811842       0.50508689995985678       0.13599694063766679        303375.61755008163        6.5169085520957459E-003
  0.70932986899999995       -3.4789287900000000E-002   1.1818879602922638        202.95597949133054        19.693327154058071        261134.47821532024       0.50788517347394513       0.14755612100260168        303372.44996480877        6.5774669242830708E-003
  0.69134171600000005       -3.6561755699999997E-002   1.1800638674254644        203.74934700768083        19.241416513480111        260780.67530005856       0.51067404750777534       0.15921906014197326        303368.61557214468        6.6429742029192607E-003
  0.67305852899999996       -3.8316646599999997E-002   1.1782167489899915        204.53418700996835        18.762202449557993        260421.31317432999       0.51345954492095436       0.17100052702301935        303364.21906905295        6.7134334368605941E-003
  0.65450849700000002       -4.0047830999999999E-002   1.1763453357965936        205.31193707404111        18.252817318810358        260056.29724815811       0.51624590753824073       0.18290838870188542        303359.38740660792        6.7889184456122464E-003
  0.63572022500000003       -4.1749047499999997E-002   1.1744486208772726        206.08362251944570        17.710159493551686        259685.55909863350       0.51903629142915775       0.19494839231443312        303354.23440406151        6.8695722807694537E-003
  0.61672268200000002       -4.3413899100000000E-002   1.1725257281169938        206.85000104394888        17.130888442680696        259309.04104657017       0.52183320642134989       0.20712512922185627        303348.86711304443        6.9555905268885443E-003
  0.59754516099999999       -4.5035853799999997E-002   1.1705760812196688        207.61160735694949        16.511410790437168        258926.74685058399       0.52463855017653904       0.21944099748038659        303343.40081910667        7.0472089925865955E-003
  0.57821723300000005       -4.6608250099999998E-002   1.1685996761356967        208.36870176541643        15.847871527094142        258538.80605807065       0.52745334385009424       0.23189443280804392        303337.96998482809        7.1447015164682881E-003
  0.55876869900000004       -4.8124307999999998E-002   1.1665973222075243        209.12116418626599        15.136168155056099        258145.52225395915       0.53027734408430016       0.24447829620703709        303332.73129816691        7.2483879017182229E-003
  0.53922954800000000       -4.9577144800000000E-002   1.1645708297762656        209.86836008543258        14.371997363144423        257747.40285786093       0.53310861034234058       0.25717858290812423        303327.86003650259        7.3586485717695993E-003
  0.51962990799999997       -5.0959797600000002E-002   1.1625230694569419        210.60899213187946        13.550929295548915        257345.15065467081       0.53594310302734571       0.26997398334911066        303323.53413922671        7.4759383329134899E-003
  0.50000000000000000       -5.2265251999999998E-002   1.1604578862768304        211.34089619691485        12.668494363026781        256939.62007244944       0.53877419766245505       0.28283605549338064        303319.91644317808        7.6008636376230232E-003
  0.48037009200000003       -5.3486475700000001E-002   1.1583802096181193        212.06082151978359        11.720286104577610        256531.82674712091       0.54159203706926384       0.29572801457069170        303317.15232597484        7.7342792579715436E-003
  0.46077045200000000       -5.4616459100000000E-002   1.1562958587796759        212.76471618567530        10.702090007392711        256122.87479537344       0.54438443792158719       0.30860761760517913        303315.31400400051        7.8769947405190610E-003
  0.44123130100000002       -5.5648259899999997E-002   1.1542110794995706        213.44783538978115        9.6099241948290963        255713.85799216386       0.54713740740627304       0.32143001768250840        303314.39274912124        8.0298099279154656E-003
  0.42178276700000000       -5.6575053700000003E-002   1.1521323663733642        214.10504060867618        8.4399562424598020        255305.83780925456       0.54983602856116720       0.33414956542005203        303314.29843813356        8.1933957664670487E-003
  0.40245483900000001       -5.7390187500000002E-002   1.1500667635768507        214.73121783460550        7.1881635353779121        254899.96378846187       0.55246539111576087       0.34671869962997326        303314.90100629051        8.3681319450239489E-003
  0.38327731799999998       -5.8087237200000003E-002   1.1480227246961823        215.32190168089230        5.8496645239685030        254497.78866822991       0.55501174735789305       0.35908311308829588        303316.15106428968        8.5539568140085009E-003
  0.36427977499999997       -5.8660066499999997E-002   1.1460097212804741        215.87443387658922        4.4180662828268877        254101.43301915083       0.55746576951791016       0.37118335134314678        303318.30342787545        8.7505454254570569E-003
  0.34549150299999998       -5.9102887200000002E-002   1.1440398304637809        216.38850804296291        2.8864439854626918        253714.47825453564       0.55982289279603070       0.38293667561497097        303322.55677723949        8.9587796609713610E-003
  0.32694147099999998       -5.9410319400000001E-002   1.1421343155217865        216.85803216192531        1.2501823202439206        253343.07427942060       0.56205747650866489       0.39417419851235469        303331.24668194586        9.1845518421360683E-003
  0.30865828400000000       -5.9577449999999997E-002   1.1403108017382746        217.25869189490268      -0.48879327450921067        252989.68204765642       0.56409815509891104       0.40473421402334192        303344.34504606301        9.4369886140523995E-003
  0.29067013100000000       -5.9599889000000003E-002   1.1385560848894956        217.55512298155060       -2.3167643450030577        252647.13985639284       0.56586155060403986       0.41463810521484712        303358.76958459674        9.7287059297741507E-003
  0.27300475000000002       -5.9473821400000002E-002   1.1368054636579523        217.70737973819985       -4.2262005487867835        252294.38249205414       0.56728134823599186       0.42422467124817786        303368.04472728795        1.0075834025787822E-002
  0.25568937899999999       -5.9196054099999999E-002   1.1351493258773151        217.82393494465367       -6.2442949474189104        251947.45111268718       0.56862793980016635       0.43357379118772316        303360.88998754323        1.0350807286890085E-002
  0.23875071800000000       -5.8764056699999997E-002   1.1336889593177366        217.97917375868744       -8.4671792057028306        251660.02168610238       0.57003760019820526       0.44177112693434722        303371.59424374270        1.0602146426054615E-002